<?xml version="1.0" encoding="utf-8"?>
<VTKFile xmlns:xsi="http://www.w3.org/2001/XMLSchema-instance" xmlns:xsd="http://www.w3.org/2001/XMLSchema" type="UnstructuredGrid">
  <UnstructuredGrid>
    <Piece NumberOfPoints="616" NumberOfCells="542">
      <PointData />
      <Points>
        <DataArray type="Float64" format="Ascii" NumberOfComponents="3">0 0 0 6.487872208438272E-05 0 0 0.0003810000000000202 0 0 0.0008909999999999751 0 0 0.005115542493796532 0 0 0.0056476842431761876 0 0 0.008986980148883383 0 0 0.010431000000000024 0 0 0.001018514000000026 0.007048164 0 0.0010818574838835637 0.007034133617653322 0 0.0013904983206567967 0.006965770643559765 0 0.0018884300884651761 0.006855480323915355 0 0.006013006386734854 0.005941899653342394 0 0.006532555959270603 0.005826821057979222 0 0.009792833436846893 0.0051046798563562515 0 0.011202683156879889 0.00479240257997875 0 0.002726842000000007 0.012310974 0 0.0027852835739745063 0.012282798993155614 0 0.0030700398770379667 0.012145516400607835 0 0.0035294386100809816 0.011924037724256119 0 0.007334829726426739 0.010089437567947026 0 0.007814173344984132 0.009858343351703706 0 0.010822150420155663 0.00840818092593363 0 0.012122897263473098 0.007781083660735759 0 0.007790000000000019 0.021093814536027905 0 0.007983143644661406 0.02098247051405631 0 0.008340998968645152 0.020776173013943636 0 0.009462913811600693 0.020129408212837707 0 0.013910724500608151 0.017565321095446146 0 0.014547429805504775 0.0171982713300649 0 0.018542882934792282 0.014894960642344506 0 0.020270646450159857 0.013898934399005958 0 0.013071449000000013 0.030255314999999998 0 0.013367250331222102 0.03001518467611892 0 0.01376320486907845 0.029693750384309606 0 0.0153780618650608 0.02838281600864347 0 0.02007003066642682 0.02457389471928679 0 0.02079805462393769 0.023982887816146787 0 0.025366550562109846 0.02027420129756265 0 0.027342116373211323 0.018670444965201944 0 0.03194620100000001 0.050850308 0 0.03220368637234089 0.050569483707905316 0 0.03254835183137983 0.05019357717518015 0 0.033954031965305886 0.04866048376124154 0 0.03803823716086807 0.044206079138618036 0 0.038671958175571675 0.04351491655442248 0 0.042648684287040106 0.03917773310607854 0 0.044368349632539994 0.03730219431760549 0 0.05854669499999998 0.07195117599999999 0 0.0587631159766418 0.07163761107710616 0 0.05905281334694967 0.07121787850315378 0 0.06023431218187175 0.06950604540443941 0 0.06366715836335823 0.0645323124285188 0 0.06419981200373293 0.06376056885603856 0 0.06754232012781186 0.058917723590010594 0 0.06898772904633249 0.05682352023172823 0 0.09261240300000001 0.092721824 0 0.09279282334170985 0.09238625060967039 0 0.09303433088573088 0.09193705788245753 0 0.09401929281887678 0.09010507479164316 0 0.09688110081323886 0.08478224587978511 0 0.09732514996827268 0.08395633523680814 0 0.10011164722594101 0.07877358076999898 0 0.10131661901304079 0.07653238964921665 0 0.13389250600000002 0.112460696 0 0.1340411078163155 0.11210987054455564 0 0.13424002363343068 0.11164026166718917 0 0.13505127989688726 0.10972501355538257 0 0.13740838587439558 0.104160258032244 0 0.13777412351986296 0.10329680912411054 0 0.1400692003927 0.09787849453579142 0 0.14106166606744036 0.09553543957868045 0 0.18213153000000004 0.130640124 0 0.18225487784844052 0.1302796433371551 0 0.18241998914162866 0.12979711016641785 0 0.18309337737544973 0.12782915174680434 0 0.18504990763921664 0.12211124636559431 0 0.18535349041351018 0.12122403413539166 0 0.18725853303875695 0.115656599948424 0 0.1880823352550799 0.1132490608405461 0 0.21792999999999996 0.1412163135452728 0 0.21803794895502115 0.14085092604807314 0 0.21818244755623062 0.14036182467386887 0 0.21975351268622922 0.135044056144518 0 0.2234627890725191 0.12248883303056968 0 0.2240383346885646 0.12054071623657323 0 0.22764999853837317 0.1083158937308867 0 0.22921179912207418 0.10302948399869793 0 0.23692238100000002 0.146827364 0 0.23701218534343924 0.14645709898693576 0 0.2371323958819012 0.14596146865448759 0 0.23925611539472916 0.13720533278123656 0 0.24400325312928578 0.11763279377044013 0 0.244739837311038 0.11459584320396848 0 0.24936205036836945 0.09553837100924564 0 0.2513608452039722 0.0872973019520682 0 0.24943539793343059 0.14965569376799595 0 0.24952163286751736 0.14928458120266969 0 0.2496370654564524 0.14878781635144553 0 0.2516763745276381 0.14001163731315217 0 0.25623483009852377 0.1203942959334376 0 0.256942137628763 0.1173503936587798 0 0.2613806338425201 0.0982492981048472 0 0.2632999835565772 0.0899893648923358 0 0.2705478591167058 0.15442776454501084 0 0.2706280518332571 0.1540552996094637 0 0.27073539641446753 0.15355672449888882 0 0.27263181734918474 0.1447485642120658 0 0.27687087590914083 0.12505973533563786 0 0.27752862456851835 0.12200474078554663 0 0.281656128955844 0.10283403898481416 0 0.2834409957179308 0.0945440057736866 0 0.2738237499408237 0.1551682174336986 0 0.2739030031479258 0.1547955514583748 0 0.2740090901180625 0.15429670723943745 0 0.2758832932571439 0.14548379270487755 0 0.2800726885092082 0.1257843366864495 0 0.28072273121837904 0.12272769318805886 0 0.284801879226968 0.10354664390695786 0 0.286565835122574 0.09525213610972501 0 0.29493621112409896 0.1599402882107135 0 0.29500939864116543 0.1595663836943652 0 0.2951073661836954 0.1590658815858675 0 0.29683812610172416 0.15022367766907477 0 0.3007068835655532 0.13045875126683215 0 0.30130717488007486 0.12739194913142957 0 0.305074122936961 0.10814715237135122 0 0.3067030734480469 0.09982507809672275 0 0.297772883 0.160581464 0 0.2978452542716757 0.1602074006376721 0 0.29794212920226515 0.15970668590069778 0 0.299653586309346 0.15086072554748445 0 0.3034791963134092 0.13108740240500757 0 0.30407279270182513 0.12801929739903736 0 0.30779772875841294 0.10876632486557303 0 0.3094085119180185 0.10044071512137223 0 0.36417837699999994 0.171448001 0 0.36422900918704393 0.17107038031513866 0 0.364296784555528 0.17056490380784395 0 0.36549414939874664 0.1616348188456376 0 0.3681706119894707 0.14167345245952928 0 0.3685859022375349 0.1385761699393412 0 0.3711919316021873 0.11914010266865678 0 0.3723188632193342 0.11073531682187433 0 0.435614216 0.179063524 0 0.4356437802341727 0.1786836727711514 0 0.4356833544059 0.1781752104963147 0 0.43638249810641516 0.1691923769741999 0 0.43794528990756676 0.1491131020424138 0 0.43818777870491527 0.1459975243779733 0 0.43970944440603654 0.12644665141807632 0 0.44036746200652144 0.11799221986785059 0 0.511426686 0.182908497 0 0.5114345077661031 0.18252757729720817 0 0.5114449778467136 0.18201768478166003 0 0.5116299492708319 0.17300958367364289 0 0.5120434148070966 0.1528738282557222 0 0.512107569712798 0.14974948686143214 0 0.5125101545770556 0.13014361974398306 0 0.512684245329167 0.12166540693643751 0 0.591497531 0.18226441599999998 0 0.5914844732933748 0.18188363982388375 0 0.5914669944734828 0.18137393943065733 0 0.5911582019887242 0.17236923248365696 0 0.5904679599639694 0.15224106401389145 0 0.5903608593518861 0.14911789983970986 0 0.5896887815909407 0.12951942001388556 0 0.5893981533699914 0.1210444017108264 0 0.676206219 0.17725782099999998 0 0.6761767297883069 0.17687796393952365 0 0.6761372560403713 0.17636949385857106 0 0.6754398864935094 0.1673865224284089 0 0.6738810604475827 0.14730693923157584 0 0.673639186992095 0.1441913137355429 0 0.6721213826842191 0.12464014062283701 0 0.6714650348754079 0.11618557927680204 0 0.7652468499999999 0.16877584099999998 0 0.7652055468186695 0.16839708639974807 0 0.7651502590956287 0.1678900920529542 0 0.7641735093219088 0.15893319192626204 0 0.7619901862982993 0.13891188576071486 0 0.7616514134855495 0.13580530275339933 0 0.7595255463309825 0.11631087306589288 0 0.7586062524263048 0.10788084941724145 0 0.8577460699999999 0.15746090399999998 0 0.8576958931941058 0.15708322253613094 0 0.8576287273909404 0.15657766467110937 0 0.8564421315350198 0.14764614238906182 0 0.8537897407982561 0.12768156317036727 0 0.8533781856318019 0.12458378213469595 0 0.8507955946512689 0.10514458657965127 0 0.8496787985515789 0.09673844796125357 0 0.9371791687077077 0.14609429103899294 0 0.9371239255323491 0.1457173173110273 0 0.9370499779747825 0.14521270680902607 0 0.935743571124439 0.13629792127367102 0 0.9328233675766122 0.11637075360640681 0 0.932370257542503 0.1132787774912032 0 0.9295269014564612 0.09387600897307752 0 0.9282973420679026 0.085485622586861 0 0.957516149926754 0.14311446085354837 0 0.9574596824150845 0.14273766857639045 0 0.957384095982141 0.14223330096129716 0 0.9560487356668069 0.13332280642798247 0 0.9530638126090013 0.1134052304123379 0 0.9526006604463577 0.1103147425747565 0 0.9496942879953364 0.09092131329636573 0 0.9484374782867866 0.08253496550030485 0 0.9606656624920139 0.14261675664668297 0 0.9606090424368866 0.14223998726183676 0 0.9605332518119131 0.14173565028999538 0 0.9591942841040475 0.13282569712079784 0 0.9562012974629363 0.11290933121317981 0 0.9557368941236377 0.1098190311406224 0 0.9528226702888715 0.09042678012531011 0 0.9515624653873509 0.08204094184841831 0 0.9809636410725998 0.13940915257427675 0 0.9809060381215853 0.1390325322083452 0 0.9808289318092037 0.13852839471064152 0 0.9794667202904623 0.12962196558454342 0 0.9764217768956287 0.10971347694973593 0 0.9759493117462317 0.10662439914517916 0 0.9729844984407358 0.08723981810602449 0 0.9717024170113321 0.07885729657557923 0 1.01954 0.13331309303303351 0 1.019480530140913 0.13293676294406878 0 1.0194009248177263 0.13243301400608448 0 1.01849599316568 0.12670653315760838 0 1.0164227491973215 0.11358687726737789 0 1.0159349714817154 0.1105001803434545 0 1.013975056591449 0.09809768004591739 0 1.0130808865121608 0.09243929930219401 0 1.0496047069999999 0.128562094 0 1.049542508440398 0.1281862052675492 0 1.0494592505259703 0.12768304712174894 0 1.0490372337168463 0.12513264459683535 0 1.0479883607044145 0.11879391987927775 0 1.047478201915029 0.11571084300550166 0 1.0465798640556794 0.11028185748839345 0 1.0460938350241529 0.1073446056008229 0 1.14
[...]
      <CellData Scalars="scalars">
        <DataArray type="Float64" Name="Strains in beam coordinate system for each element-ε_zz" format="Ascii" NumberOfComponents="1">-4.8195701553340644E-05 -4.823618377443735E-05 -4.832396126584224E-05 -4.88270184732584E-05 -4.933242829798127E-05 -4.97437784163941E-05 -5.0252017907320726E-05 -3.499717517464045E-05 -3.5126457681631406E-05 -3.5406780594721985E-05 -3.70133252746518E-05 -3.862738318520882E-05 -3.994105553615065E-05 -4.156415016284765E-05 -1.993769615229737E-05 -2.019210792940775E-05 -2.0830376325215783E-05 -2.3603655726425074E-05 -2.6234526197976034E-05 -2.8525879979111723E-05 -3.1356939038364065E-05 -7.282989697224153E-07 -1.193173085473038E-06 -2.5074366720164248E-06 -6.911750476354E-06 -1.0787311958235494E-05 -1.447230870811753E-05 -1.9025269284505683E-05 3.1289698435092216E-05 3.0643459673747476E-05 2.876495829340256E-05 2.2873117727272144E-05 1.7809757134957986E-05 1.2861744967914692E-05 6.7482784285592395E-06 7.635411723881407E-05 7.561500125107803E-05 7.346652225810026E-05 6.672790826571603E-05 6.093684312182939E-05 5.527770424169775E-05 4.828561226268315E-05 0.0001217638530796834 0.00012095529002007199 0.00011860494071509479 0.0001112331689801714 0.00010489797744211173 9.870710791201128E-05 9.105804149017173E-05 0.00016586624873390362 0.00016501024806795514 0.00016252200606090754 0.00015471773966596817 0.00014801086861734948 0.00014145678680817922 0.00013335895711741202 0.00020733694027754142 0.00020644909640427387 0.00020386829184530016 0.00019577370689960084 0.00018881734038472895 0.00018201944686589756 0.0001736203780757514 0.00023894529962274595 0.00023803875609875626 0.00023362857655856288 0.00021997785376625222 0.00020870410119980205 0.0001976871760075285 0.00018407532517616878 0.00025681000742420427 0.00025589082891484225 0.0002478447705524346 0.00022315853181322477 0.00020332863160058129 0.00018395047637451416 0.00016000799208596241 0.00026615207121048496 0.0002652254760194498 0.0002553251547863912 0.00022501062075869614 0.00020081619077055458 0.0001771729341283711 0.00014796074679259224 0.0002746179208966138 0.00027368846140285983 0.0002637575361721777 0.00023334929347528866 0.00020908007336060177 0.0001853637303858583 0.00015606124196885615 0.0002807581720301817 0.00027982668778819917 0.0002698741288839646 0.00023939964442404465 0.00021507755588339147 0.00019130954887837325 0.00016194322748972297 0.00028689848401569504 0.00028596511733278965 0.00027599244525505784 0.00024545637476494387 0.00022108513360019247 0.00019726909371707964 0.0001678434257902425 0.0002929282215261273 0.0002919930266468684 0.0002820008209784679 0.00025140493912616973 0.0002269859617232979 0.00020312327308137691 0.0001736399687509805 0.0003059236056819295 0.00030498350077600014 0.00029493883331870735 0.00026418231479138763 0.00023963513113656467 0.00021564715690951104 0.00018600905723773026 0.0003270529996590622 0.00032610516051960085 0.00031597785568495166 0.00028496830359146173 0.00026021917050552534 0.0002360338474576526 0.00020615191544028956 0.0003407535034065646 0.0003398010473236432 0.0003296244121840123 0.0002984638119402897 0.000273594125330677 0.00024929099508913207 0.00021926350758154483 0.0003456914187380102 0.00034473732141325963 0.0003345431502217614 0.00030332885502930594 0.000278416313771931 0.00025407130515441907 0.00022399207524168921 0.00034123499520386863 0.00034028180628061855 0.0003300973410176096 0.00029891276513350156 0.000274023943248638 0.00024970211365257637 0.0002196515223460723 0.00032847023181896304 0.00032751925505328835 0.0003173584258622411 0.0002862462230346123 0.0002614151630419954 0.00023714977946442625 0.00020716892946689313 0.0003090236945399122 0.0003080752084448099 0.0002979409911323815 0.0002669102732061957 0.00024214424738963617 0.00021794241644446173 0.00018804008826104636 0.00028639396620279146 0.0002854475528009371 0.00027533548143656724 0.00024437257384503564 0.00021966066835217172 0.00019551172481551752 0.00016567474113640524 0.00027199320679597124 0.000271047835869335 0.0002609469029607196 0.00023001810103990682 0.0002053334157332958 0.00018121107227979044 0.00015140695406518903 0.00026849574527992203 0.0002675506147024881 0.0002574522498347319 0.0002265313111902895 0.0002018529016684043 0.00017773669103096352 0.00014794015015540989 0.0002647539035726624 0.0002638089754574022 0.00025371277382185085 0.00022279845893988435 0.0001981253359303148 0.00017401429137314466 0.00014422413339597686 0.00025535851222441655 0.00025441410205891645 0.0002460253305240179 0.00022046284422669332 0.00019943623277336625 0.00017907525758232009 0.00015449592033198395 0.0002444046204771703 0.00024346107464695164 0.0002384815668251064 0.0002236053278086281 0.00020985922613942176 0.00019698574872722404 0.00018281115759467332 0.0002230537346351027 0.0002221110601278737 0.00021883647503829804 0.0002093039303580142 0.00019920015501671422 0.00019007196809249253 0.0001811001613345783 0.00018951974856638574 0.0001885776381923772 0.00018530501274233567 0.00017577817270887126 0.0001656804438611151 0.00015655771960024838 0.00014759128192169365 0.00015579843689214265 0.00015485645648731026 0.00015158428251349192 0.00014205875675867718 0.00013196242094674278 0.0001228409552145887 0.00011387575450417485 0.00012317162594741333 0.0001222292164593256 0.00011895555197142283 0.0001094256872265629 9.932475241382702E-05 9.019913174576405E-05 8.122984728001352E-05 9.278195208974816E-05 9.183865059633598E-05 8.856188753377891E-05 7.902300262284312E-05 6.89125071172777E-05 5.977824890648199E-05 5.080047487266005E-05 6.55661232315958E-05 6.462159518723265E-05 6.134057143296826E-05 5.178928335248338E-05 4.1665641426644365E-05 3.251950617211121E-05 2.3530058566948956E-05 4.218446716613722E-05 4.123852873367074E-05 3.7952605689335125E-05 2.8387055435100508E-05 1.824829668534104E-05 9.08850423933387E-06 8.563341181893246E-08 6.2591236424575815E-06 5.72083143231603E-06 3.850956272176411E-06 -1.5923802187051037E-06 -7.361904606534039E-06 -1.257434206648874E-05 -1.769748229320075E-05 -5.9632682286669505E-05 -5.958088874217628E-05 -5.946858493859477E-05 -5.882496620550379E-05 -5.817833749949508E-05 -5.765205015450398E-05 -5.700180113225636E-05 -6.630181071251677E-05 -6.615500733123252E-05 -6.583669395341394E-05 -6.401242401398275E-05 -6.217962262133245E-05 -6.068791622186287E-05 -5.884485342172647E-05 -7.194214168153347E-05 -7.17198544395241E-05 -7.123786960899093E-05 -6.847559036195082E-05 -6.57003929301263E-05 -6.344167587248708E-05 -6.065094078785607E-05 -7.919671608850713E-05 -7.893442273934112E-05 -7.836569277398207E-05 -7.510627280687794E-05 -7.18316097069623E-05 -6.916638044543963E-05 -6.587338330639537E-05 -8.458129842089646E-05 -8.419444606935647E-05 -8.322631069890964E-05 -7.89985746353151E-05 -7.498302710363507E-05 -7.149071101502009E-05 -6.717581508675111E-05 -8.894619546336171E-05 -8.83028057585393E-05 -8.648788643575089E-05 -8.037420799546147E-05 -7.498500975921584E-05 -6.987126706492746E-05 -6.355303384378996E-05 -0.00010854698957668846 -0.00010773292170388688 -0.00010536657088399778 -9.794461107060726E-05 -9.156628864061964E-05 -8.53332707835051E-05 -7.763212842122902E-05 -0.00014007062611403432 -0.00013920504857352725 -0.000136688968291907 -0.00012879738831970118 -0.0001220154812748869 -0.00011538807286466333 -0.00010719964523135867 -0.00017000766206018918 -0.00016910500353314767 -0.00016648113540505938 -0.00015825148338616732 -0.00015117904222737945 -0.0001442677183612698 -0.00013572850184932693 -0.0001980462631184478 -0.0001971227575701931 -0.00019443829085151026 -0.00018601857390210965 -0.0001787827937547127 -0.0001717118519257392 -0.00016297542104929901 -0.00022302268731301162 -0.0002220877750634118 -0.00021937015108845821 -0.00021084643779942128 -0.00020352128473672743 -0.00019636300599697485 -0.00018751866688108962 -0.00023569545155234604 -0.00023475344312378884 -0.00023017631981167545 -0.00021600851839815227 -0.0002043068531414697 -0.00019287176353860368 -0.00017874325388632717 -0.00024257379769453626 -0.00024162666023178875 -0.0002333457245534191 -0.00020793851991289097 -0.00018752862114012353 -0.0001675836803020033 -0.00014294090976570253 -0.00025096663310665134 -0.00025001781093699133 -0.00023988000279427172 -0.00020883828983625963 -0.00018406348873958205 -0.00015985308242395918 -0.00012994015902805653 -0.00025388190105390333 -0.0002529327263468637 -0.00024279115147479035 -0.00021173790488645687 -0.00018695389864708875 -0.0001627344968911449 -0.0001328104592696598 -0.0002561239140018149 -0.00025517402318453496 -0.00024502479694378873 -0.00021394812205746994 -0.00018914541738404952 -0.0001649077431631076 -0.0001349611291817459 -0.00026202247615807233 -0.00026107097692946773 -0.00025090456541845157 -0.00021977526966780847 -0.00019493056758757815 -0.00017065185270281416 -0.0001406545313431035 -0.00026957900573225087 -0.0002686256986771352 -0.0002584399712195577 -0.0002272515305275006 -0.00020235962408836824 -0.00017803478020727326 -0.00014798046463129094 -0.0002741122236504142 -0.00027315793678249777 -0.0002629617403935374 -0.00023174124409750842 -0.0002068237536574702 -0.00018247390860463248 -0.00015238870308300451 -0.000273568659650687 -0.0002726143691309712 -0.0002624181337239072 -0.00023119751795542848 -0.0002062799321628502 -0.00018192999392969874 -0.00015184467328007377 -0.00026847892363849755 -0.0002675251011260577 -0.0002573338662007742 -0.00022612856178144504 -0.00020122319617884836 -0.00017688519974751228 -0.00014681463367070417 -0.00025949779788459067 -0.00025854461033018763 -0.000248360159692795 -0.00021717562859195535 -0.00019228684244920966 -0.0001679650477810247 -0.00013791449962930648 -0.00024738271587028415 -0.00024643015629261607 -0.00023625241535052811 -0.00020508842916755932 -0.0001802160401951144 -0.00015591026915326892 -0.00012587951883149897 -0.00023644981841168452 -0.0002354976697486049 -0.00022532431927439815 -0.00019417377659339748 -0.000169312117057429 -0.0001450168310247515 -0.00011499903535033265 -0.00023070140715532656 -0.00022974941518065595 -0.00021957773886318734 -0.00018843232240791313 -0.00016357475418040188 -0.0001392834662520774 -0.00010927061039517683 -0.00022889790101838215 -0.00022794595946428543 -0.00021777482187169243 -0.00018663105497840598 -0.00016177480328810376 -0.00013748480190495225 -0.00010747353562596712 -0.00022709439526143814 -0.00022614250501657796 -0.00021597191564388563 -0.00018482982738611434 -0.00015997491543698743 -0.0001356862232743655 -0.0001056765745896041 -0.00022534011846789403 -0.00022438827825219863 -0.00021421822342232146 -0.00018307777192117455 -0.000158224166289127 -0.0001339367506843731 -0.00010392867923781328 -0.0002216255042549318 -0.00022067386031194902 -0.00021222111260346712 -0.00018646370074850254 -0.00016527662837223042 -0.00014476030772689425 -0.00011999355246854403 -0.00021307626750597937 -0.0002121249849641573 -0.00020710528797148579 -0.0001921090784574669 -0.0001782516321094941 -0.00016527400431267652 -0.00015098514305807848 -0.0001988385367428932 -0.00019788765158323298 -0.00019458454500525269 -0.0001849689722908431 -0.00017477719352212967 -0.00016556950050159583 -0.0001565195497115632 -0.0001800066935621538 -0.0001790562699871991 -0.00017575476682416504 -0.0001661438617620526 -0.0001559570303512342 -0.0001467538069874494 -0.00013770824928193185 -0.00016059795380925416 -0.00015964797861210933 -0.00015634803298699495 -0.00014674166202596845 -0.00013655963641887644 -0.00012736075482569265 -0.00011831946450943241 -0.0001410706392411646 -0.00014012107872598672 -0.00013682257358894675 -0.0001272203959887752 -0.00011704281502657335 -0.00010784794891750307 -9.881060529381225E-05 -0.00012183877773235216 -0.00012088961403443045 -0.00011759248732850381 -0.00010799432243706237 -9.78209946421814E-05 -8.862997102812051E-05 -7.959640407146975E-05 -0.00010328945698598586 -0.00010234069049746465 -9.90449435848497E-05 -8.945079536759253E-05 -7.92817249431135E-05 -7.00945476213069E-05 -6.106476106388838E-05 -5.661435769262803E-05 -5.620503248071991E-05 -5.478315226074682E-05 -5.0643960162775794E-05 -4.625673005213363E-05 -4.229311692963885E-05 -3.839740671978378E-05 0.00011369778948615861 4.666295299895359E-05 -2.0371883488251452E-05 -8.739957213151712E-05 0.00011847109139318241 4.9257428340418385E-05 -1.9956234712345625E-05 -8.916992688679976E-05 0.00012335010175409662 5.2129894694234804E-05 -1.9090312365627025E-05 -9.031052891882375E-05 0.00011208203298572131 5.142713012616791E-05 -9.227772733385503E-06 -6.988267488567507E-05 0.0001092751556309802 4.993553088434184E-05 -9.404093862296506E-06 -6.87437184735861E-05 0.00010624988601358865 4.828790172559265E-05 -9.674082562403309E-06 -6.763606635596323E-05</DataArray>