<?xml version="1.0" encoding="utf-8"?>
<VTKFile xmlns:xsi="http://www.w3.org/2001/XMLSchema-instance" xmlns:xsd="http://www.w3.org/2001/XMLSchema" type="UnstructuredGrid">
  <UnstructuredGrid>
    <Piece NumberOfPoints="616" NumberOfCells="542">
      <PointData />
      <Points>
        <DataArray type="Float64" format="Ascii" NumberOfComponents="3">0 0 0 6.487872208438272E-05 0 0 0.0003810000000000202 0 0 0.0008909999999999751 0 0 0.005115542493796532 0 0 0.0056476842431761876 0 0 0.008986980148883383 0 0 0.010431000000000024 0 0 0.001018514000000026 0.007048164 0 0.0010818574838835637 0.007034133617653322 0 0.0013904983206567967 0.006965770643559765 0 0.0018884300884651761 0.006855480323915355 0 0.006013006386734854 0.005941899653342394 0 0.006532555959270603 0.005826821057979222 0 0.009792833436846893 0.0051046798563562515 0 0.011202683156879889 0.00479240257997875 0 0.002726842000000007 0.012310974 0 0.0027852835739745063 0.012282798993155614 0 0.0030700398770379667 0.012145516400607835 0 0.0035294386100809816 0.011924037724256119 0 0.007334829726426739 0.010089437567947026 0 0.007814173344984132 0.009858343351703706 0 0.010822150420155663 0.00840818092593363 0 0.012122897263473098 0.007781083660735759 0 0.007790000000000019 0.021093814536027905 0 0.007983143644661406 0.02098247051405631 0 0.008340998968645152 0.020776173013943636 0 0.009462913811600693 0.020129408212837707 0 0.013910724500608151 0.017565321095446146 0 0.014547429805504775 0.0171982713300649 0 0.018542882934792282 0.014894960642344506 0 0.020270646450159857 0.013898934399005958 0 0.013071449000000013 0.030255314999999998 0 0.013367250331222102 0.03001518467611892 0 0.01376320486907845 0.029693750384309606 0 0.0153780618650608 0.02838281600864347 0 0.02007003066642682 0.02457389471928679 0 0.02079805462393769 0.023982887816146787 0 0.025366550562109846 0.02027420129756265 0 0.027342116373211323 0.018670444965201944 0 0.03194620100000001 0.050850308 0 0.03220368637234089 0.050569483707905316 0 0.03254835183137983 0.05019357717518015 0 0.033954031965305886 0.04866048376124154 0 0.03803823716086807 0.044206079138618036 0 0.038671958175571675 0.04351491655442248 0 0.042648684287040106 0.03917773310607854 0 0.044368349632539994 0.03730219431760549 0 0.05854669499999998 0.07195117599999999 0 0.0587631159766418 0.07163761107710616 0 0.05905281334694967 0.07121787850315378 0 0.06023431218187175 0.06950604540443941 0 0.06366715836335823 0.0645323124285188 0 0.06419981200373293 0.06376056885603856 0 0.06754232012781186 0.058917723590010594 0 0.06898772904633249 0.05682352023172823 0 0.09261240300000001 0.092721824 0 0.09279282334170985 0.09238625060967039 0 0.09303433088573088 0.09193705788245753 0 0.09401929281887678 0.09010507479164316 0 0.09688110081323886 0.08478224587978511 0 0.09732514996827268 0.08395633523680814 0 0.10011164722594101 0.07877358076999898 0 0.10131661901304079 0.07653238964921665 0 0.13389250600000002 0.112460696 0 0.1340411078163155 0.11210987054455564 0 0.13424002363343068 0.11164026166718917 0 0.13505127989688726 0.10972501355538257 0 0.13740838587439558 0.104160258032244 0 0.13777412351986296 0.10329680912411054 0 0.1400692003927 0.09787849453579142 0 0.14106166606744036 0.09553543957868045 0 0.18213153000000004 0.130640124 0 0.18225487784844052 0.1302796433371551 0 0.18241998914162866 0.12979711016641785 0 0.18309337737544973 0.12782915174680434 0 0.18504990763921664 0.12211124636559431 0 0.18535349041351018 0.12122403413539166 0 0.18725853303875695 0.115656599948424 0 0.1880823352550799 0.1132490608405461 0 0.21792999999999996 0.1412163135452728 0 0.21803794895502115 0.14085092604807314 0 0.21818244755623062 0.14036182467386887 0 0.21975351268622922 0.135044056144518 0 0.2234627890725191 0.12248883303056968 0 0.2240383346885646 0.12054071623657323 0 0.22764999853837317 0.1083158937308867 0 0.22921179912207418 0.10302948399869793 0 0.23692238100000002 0.146827364 0 0.23701218534343924 0.14645709898693576 0 0.2371323958819012 0.14596146865448759 0 0.23925611539472916 0.13720533278123656 0 0.24400325312928578 0.11763279377044013 0 0.244739837311038 0.11459584320396848 0 0.24936205036836945 0.09553837100924564 0 0.2513608452039722 0.0872973019520682 0 0.24943539793343059 0.14965569376799595 0 0.24952163286751736 0.14928458120266969 0 0.2496370654564524 0.14878781635144553 0 0.2516763745276381 0.14001163731315217 0 0.25623483009852377 0.1203942959334376 0 0.256942137628763 0.1173503936587798 0 0.2613806338425201 0.0982492981048472 0 0.2632999835565772 0.0899893648923358 0 0.2705478591167058 0.15442776454501084 0 0.2706280518332571 0.1540552996094637 0 0.27073539641446753 0.15355672449888882 0 0.27263181734918474 0.1447485642120658 0 0.27687087590914083 0.12505973533563786 0 0.27752862456851835 0.12200474078554663 0 0.281656128955844 0.10283403898481416 0 0.2834409957179308 0.0945440057736866 0 0.2738237499408237 0.1551682174336986 0 0.2739030031479258 0.1547955514583748 0 0.2740090901180625 0.15429670723943745 0 0.2758832932571439 0.14548379270487755 0 0.2800726885092082 0.1257843366864495 0 0.28072273121837904 0.12272769318805886 0 0.284801879226968 0.10354664390695786 0 0.286565835122574 0.09525213610972501 0 0.29493621112409896 0.1599402882107135 0 0.29500939864116543 0.1595663836943652 0 0.2951073661836954 0.1590658815858675 0 0.29683812610172416 0.15022367766907477 0 0.3007068835655532 0.13045875126683215 0 0.30130717488007486 0.12739194913142957 0 0.305074122936961 0.10814715237135122 0 0.3067030734480469 0.09982507809672275 0 0.297772883 0.160581464 0 0.2978452542716757 0.1602074006376721 0 0.29794212920226515 0.15970668590069778 0 0.299653586309346 0.15086072554748445 0 0.3034791963134092 0.13108740240500757 0 0.30407279270182513 0.12801929739903736 0 0.30779772875841294 0.10876632486557303 0 0.3094085119180185 0.10044071512137223 0 0.36417837699999994 0.171448001 0 0.36422900918704393 0.17107038031513866 0 0.364296784555528 0.17056490380784395 0 0.36549414939874664 0.1616348188456376 0 0.3681706119894707 0.14167345245952928 0 0.3685859022375349 0.1385761699393412 0 0.3711919316021873 0.11914010266865678 0 0.3723188632193342 0.11073531682187433 0 0.435614216 0.179063524 0 0.4356437802341727 0.1786836727711514 0 0.4356833544059 0.1781752104963147 0 0.43638249810641516 0.1691923769741999 0 0.43794528990756676 0.1491131020424138 0 0.43818777870491527 0.1459975243779733 0 0.43970944440603654 0.12644665141807632 0 0.44036746200652144 0.11799221986785059 0 0.511426686 0.182908497 0 0.5114345077661031 0.18252757729720817 0 0.5114449778467136 0.18201768478166003 0 0.5116299492708319 0.17300958367364289 0 0.5120434148070966 0.1528738282557222 0 0.512107569712798 0.14974948686143214 0 0.5125101545770556 0.13014361974398306 0 0.512684245329167 0.12166540693643751 0 0.591497531 0.18226441599999998 0 0.5914844732933748 0.18188363982388375 0 0.5914669944734828 0.18137393943065733 0 0.5911582019887242 0.17236923248365696 0 0.5904679599639694 0.15224106401389145 0 0.5903608593518861 0.14911789983970986 0 0.5896887815909407 0.12951942001388556 0 0.5893981533699914 0.1210444017108264 0 0.676206219 0.17725782099999998 0 0.6761767297883069 0.17687796393952365 0 0.6761372560403713 0.17636949385857106 0 0.6754398864935094 0.1673865224284089 0 0.6738810604475827 0.14730693923157584 0 0.673639186992095 0.1441913137355429 0 0.6721213826842191 0.12464014062283701 0 0.6714650348754079 0.11618557927680204 0 0.7652468499999999 0.16877584099999998 0 0.7652055468186695 0.16839708639974807 0 0.7651502590956287 0.1678900920529542 0 0.7641735093219088 0.15893319192626204 0 0.7619901862982993 0.13891188576071486 0 0.7616514134855495 0.13580530275339933 0 0.7595255463309825 0.11631087306589288 0 0.7586062524263048 0.10788084941724145 0 0.8577460699999999 0.15746090399999998 0 0.8576958931941058 0.15708322253613094 0 0.8576287273909404 0.15657766467110937 0 0.8564421315350198 0.14764614238906182 0 0.8537897407982561 0.12768156317036727 0 0.8533781856318019 0.12458378213469595 0 0.8507955946512689 0.10514458657965127 0 0.8496787985515789 0.09673844796125357 0 0.9371791687077077 0.14609429103899294 0 0.9371239255323491 0.1457173173110273 0 0.9370499779747825 0.14521270680902607 0 0.935743571124439 0.13629792127367102 0 0.9328233675766122 0.11637075360640681 0 0.932370257542503 0.1132787774912032 0 0.9295269014564612 0.09387600897307752 0 0.9282973420679026 0.085485622586861 0 0.957516149926754 0.14311446085354837 0 0.9574596824150845 0.14273766857639045 0 0.957384095982141 0.14223330096129716 0 0.9560487356668069 0.13332280642798247 0 0.9530638126090013 0.1134052304123379 0 0.9526006604463577 0.1103147425747565 0 0.9496942879953364 0.09092131329636573 0 0.9484374782867866 0.08253496550030485 0 0.9606656624920139 0.14261675664668297 0 0.9606090424368866 0.14223998726183676 0 0.9605332518119131 0.14173565028999538 0 0.9591942841040475 0.13282569712079784 0 0.9562012974629363 0.11290933121317981 0 0.9557368941236377 0.1098190311406224 0 0.9528226702888715 0.09042678012531011 0 0.9515624653873509 0.08204094184841831 0 0.9809636410725998 0.13940915257427675 0 0.9809060381215853 0.1390325322083452 0 0.9808289318092037 0.13852839471064152 0 0.9794667202904623 0.12962196558454342 0 0.9764217768956287 0.10971347694973593 0 0.9759493117462317 0.10662439914517916 0 0.9729844984407358 0.08723981810602449 0 0.9717024170113321 0.07885729657557923 0 1.01954 0.13331309303303351 0 1.019480530140913 0.13293676294406878 0 1.0194009248177263 0.13243301400608448 0 1.01849599316568 0.12670653315760838 0 1.0164227491973215 0.11358687726737789 0 1.0159349714817154 0.1105001803434545 0 1.013975056591449 0.09809768004591739 0 1.0130808865121608 0.09243929930219401 0 1.0496047069999999 0.128562094 0 1.049542508440398 0.1281862052675492 0 1.0494592505259703 0.12768304712174894 0 1.0490372337168463 0.12513264459683535 0 1.0479883607044145 0.11879391987927775 0 1.047478201915029 0.11571084300550166 0 1.0465798640556794 0.11028185748839345 0 1.0460938350241529 0.1073446056008229 0 1.14
[...]
      <CellData Scalars="scalars">
        <DataArray type="Float64" Name="Strains in beam coordinate system for each element-ε_zz" format="Ascii" NumberOfComponents="1">1.8326262970705816E-06 1.8207182920486973E-06 1.7948981967045957E-06 1.6469219347821725E-06 1.4982536411988427E-06 1.37725338125481E-06 1.2277527301957364E-06 5.175219500852622E-06 5.140824856472885E-06 5.066247041332615E-06 4.6388378408735895E-06 4.209429801580291E-06 3.859937094532949E-06 3.428124904475334E-06 8.973066592721324E-06 8.906486165434464E-06 8.739490964874798E-06 8.013526957462653E-06 7.324755984704535E-06 6.724959116328594E-06 5.9838861437013516E-06 1.3809981995833181E-05 1.3689164295355282E-05 1.334764507389879E-05 1.2202772772132015E-05 1.1195230468463662E-05 1.0237357488168967E-05 9.053867186146645E-06 2.1843063340412258E-05 2.1676043084732668E-05 2.119054484537172E-05 1.9667800038590416E-05 1.8359175685933956E-05 1.708036310662407E-05 1.550033911925592E-05 3.310038970608013E-05 3.2910164693537496E-05 3.2357214344514945E-05 3.0622908832943364E-05 2.9132472341364608E-05 2.7675989485742733E-05 2.587644678002827E-05 4.4380116626541566E-05 4.417262981546273E-05 4.356950248183776E-05 4.1677818968599555E-05 4.005213415134195E-05 3.846348406235197E-05 3.6500643464167304E-05 5.5264418132938726E-05 5.504521655957417E-05 5.440803649120094E-05 5.2409548007747205E-05 5.06920765796364E-05 4.901373087071316E-05 4.694006775377215E-05 6.541889157865768E-05 6.519188438638015E-05 6.453201476922153E-05 6.24623614703679E-05 6.068373205303269E-05 5.8945621595129575E-05 5.679811674522861E-05 7.309047177223557E-05 7.285891670251227E-05 7.173260720268338E-05 6.824635829003552E-05 6.536713623851042E-05 6.255350574887264E-05 5.907715296884514E-05 7.739501077227271E-05 7.71604133525931E-05 7.510704813785728E-05 6.88070794101663E-05 6.374643957066109E-05 5.880108617495286E-05 5.269090465371057E-05 7.963373386609386E-05 7.93973607825675E-05 7.687180325712306E-05 6.913860978372967E-05 6.296664593609681E-05 5.693528560616202E-05 4.948329916816474E-05 8.164062642439006E-05 8.140357375025687E-05 7.887075505469239E-05 7.111532806144612E-05 6.492561934796844E-05 5.887691839800432E-05 5.1403506931785194E-05 8.309621897728633E-05 8.285868684956029E-05 8.032074537262222E-05 7.254963255195573E-05 6.634740477244266E-05 6.028646995330535E-05 5.279794305339034E-05 8.455182704575927E-05 8.43138517488992E-05 8.177117517638756E-05 7.398556361244695E-05 6.777176419443396E-05 6.169952135031083E-05 5.419702293414987E-05 8.598122274136687E-05 8.574281744115983E-05 8.319554644455923E-05 7.539586686988401E-05 6.917083958669985E-05 6.308762465941886E-05 5.557156979655002E-05 8.898606221579631E-05 8.874652253233043E-05 8.618713107711674E-05 7.835033896372618E-05 7.209569167322769E-05 6.598353151206355E-05 5.8431713657341735E-05 9.376301911824082E-05 9.352172917599694E-05 9.09436368638063E-05 8.304958319780244E-05 7.674923470587857E-05 7.059241446242754E-05 6.298541729336926E-05 9.661150634646285E-05 9.636925839935654E-05 9.378093016540377E-05 8.58555343650127E-05 7.953017130168168E-05 7.334890634381234E-05 6.571170675434459E-05 9.719589482541871E-05 9.695344417850826E-05 9.436295017335974E-05 8.643092283616646E-05 8.010026705572729E-05 7.39138299541462E-05 6.627023997466906E-05 9.535449491179196E-05 9.51124628217844E-05 9.252644093977304E-05 8.46081071308833E-05 7.828838033624112E-05 7.211262324721511E-05 6.448222884955774E-05 9.136298088009764E-05 9.112165308315248E-05 8.854315630771145E-05 8.064786418543144E-05 7.434652726519666E-05 6.81887411108215E-05 6.058055052026077E-05 8.563980940486163E-05 8.539921866307749E-05 8.28285970449124E-05 7.495741845567784E-05 6.867532686464726E-05 6.253634761160275E-05 5.4951393698340384E-05 7.914897164351145E-05 7.890897778709319E-05 7.634473366464435E-05 6.84930828065158E-05 6.222657655559435E-05 5.610282759300251E-05 4.853669131153319E-05 7.50599061508659E-05 7.482020887748862E-05 7.225913363332276E-05 6.441718580060907E-05 5.815842366242436E-05 5.2042242393925347E-05 4.4485456300583064E-05 7.407001112045144E-05 7.383038185650367E-05 7.127003326752205E-05 6.34303104346634E-05 5.7173324098249814E-05 5.10588781769791E-05 4.350423617440622E-05 7.30181758958845E-05 7.277860379808189E-05 7.021886600786784E-05 6.238101342543727E-05 5.6125519760591726E-05 5.0012532506335835E-05 4.2459692745084544E-05 7.03771224348372E-05 7.013769630621052E-05 6.801096417369865E-05 6.153032830576027E-05 5.619964120607117E-05 5.103770463573412E-05 4.480631737580414E-05 6.729797276245609E-05 6.705878941668379E-05 6.579648797098864E-05 6.202536896252278E-05 5.854075851323991E-05 5.527735165853815E-05 5.168409837383004E-05 6.132361168642983E-05 6.10846723436251E-05 6.0254664527288376E-05 5.783845411351657E-05 5.5277454084998186E-05 5.2963736075285875E-05 5.068965568585359E-05 5.196586600172414E-05 5.172708416602217E-05 5.089762348489095E-05 4.8483005819711686E-05 4.592369398406247E-05 4.36115011606843E-05 4.1338919828750876E-05 4.257063269622785E-05 4.233188711124555E-05 4.1502552354879686E-05 3.9088301265440304E-05 3.652937797230996E-05 3.421753617502061E-05 3.1945299855548255E-05 3.34747845719739E-05 3.323591924865518E-05 3.2406168555114684E-05 2.9990706643664996E-05 2.7430499970914533E-05 2.5117498713060046E-05 2.284412279640151E-05 2.4980442906340965E-05 2.474132803436322E-05 2.3910710479237196E-05 2.1492725073491377E-05 1.8929843687923057E-05 1.6614425979014856E-05 1.433867500890114E-05 1.733778107147529E-05 1.7098321497992787E-05 1.626650654716002E-05 1.3845035439329118E-05 1.127845947356678E-05 8.959703921379379E-06 6.680672290479698E-06 1.0726834074886505E-05 1.0486975488749096E-05 9.653774480607785E-06 7.228268463662668E-06 4.657415799853815E-06 2.3347964939834213E-06 5.196730156449068E-08 3.103109887383224E-07 1.9032831385597902E-07 -2.2645762356376743E-07 -1.4397504413975419E-06 -2.725748930338285E-06 -3.887575494645829E-06 -5.029498146724672E-06 -1.071500454353808E-06 -1.059953481893145E-06 -1.0349162124829894E-06 -8.914263652657947E-07 -7.472654677328011E-07 -6.299337512328077E-07 -4.849657320340036E-07 -2.772930270584999E-06 -2.7371425252602547E-06 -2.6595440530781034E-06 -2.214823315552698E-06 -1.7680227793715374E-06 -1.404374420209119E-06 -9.550723569202501E-07 -4.218391983640294E-06 -4.163275134233596E-06 -4.043765417523507E-06 -3.358849234740834E-06 -2.670729945747771E-06 -2.1106736564489674E-06 -1.418701755573519E-06 -6.084531205323455E-06 -6.019135095982525E-06 -5.877336887532552E-06 -5.064684240279008E-06 -4.248231109394414E-06 -3.5837246521800895E-06 -2.7627003995673656E-06 -7.47279673631936E-06 -7.376032229570472E-06 -7.133836563786762E-06 -6.0764891330009525E-06 -5.072277178369672E-06 -4.198846370478748E-06 -3.119687743091187E-06 -8.601872409155238E-06 -8.440397144376183E-06 -7.984863820725928E-06 -6.45062368054949E-06 -5.0982694281066665E-06 -3.8149536353013976E-06 -2.229365747907508E-06 -1.3697788035832086E-05 -1.3492918062960762E-05 -1.289739741355063E-05 -1.1029571945400743E-05 -9.424390379029509E-06 -7.855776456336613E-06 -5.917691341384186E-06 -2.194446810976529E-05 -2.1726117561798158E-05 -2.109141127320935E-05 -1.9100681695997645E-05 -1.7389878157091297E-05 -1.5718048436178527E-05 -1.3652436082519412E-05 -2.9861509060225327E-05 -2.963337293680884E-05 -2.8970221717199754E-05 -2.6890275810290593E-05 -2.5102801077907298E-05 -2.3356046810091534E-05 -2.1197862188013445E-05 -3.7368245554253084E-05 -3.713453648343019E-05 -3.645518569483555E-05 -3.432443052118768E-05 -3.2493291056868496E-05 -3.0703866783440746E-05 -2.8492961666194845E-05 -4.416405594383914E-05 -4.392725739571877E-05 -4.3238926044961994E-05 -4.108000371583202E-05 -3.922465781492227E-05 -3.741157855177235E-05 -3.517144675050201E-05 -4.765747206208472E-05 -4.741871159144318E-05 -4.625841514362758E-05 -4.2666902068184135E-05 -3.970057890818056E-05 -3.6801831560547575E-05 -3.322031350490603E-05 -4.9607845692734315E-05 -4.936764340836097E-05 -4.72674344480826E-05 -4.0823668301097674E-05 -3.564732511826256E-05 -3.0588904217262926E-05 -2.4339023279982087E-05 -5.1992302303337554E-05 -5.175161624341217E-05 -4.917997618674588E-05 -4.1305679164495664E-05 -3.5021098710888424E-05 -2.8879687294049353E-05 -2.1291728345335497E-05 -5.2828708842057726E-05 -5.258792010225749E-05 -5.0015182949734173E-05 -4.2137526647627695E-05 -3.5850265108399294E-05 -2.9706233683754655E-05 -2.2115037610815657E-05 -5.350257429116739E-05 -5.32615745303984E-05 -5.068658269816409E-05 -4.280202262362306E-05 -3.650925109243279E-05 -3.0359835198961425E-05 -2.276198639985826E-05 -5.527545649978516E-05 -5.503397149735305E-05 -5.245379504039062E-05 -4.455335977563693E-05 -3.8247918045465563E-05 -3.2086120592835194E-05 -2.4472973883163443E-05 -5.7708338787325325E-05 -5.7466271139797126E-05 -5.487986933904694E-05 -4.696037222855659E-05 -4.0639716987542595E-05 -3.446305260308296E-05 -2.6831537205701348E-05 -5.9544206764807185E-05 -5.9301761554328686E-05 -5.671132563541156E-05 -4.87794761567945E-05 -4.244896232763411E-05 -3.626266394353946E-05 -2.8619245355053926E-05 -6.013943088229161E-05 -5.9896883303413096E-05 -5.730535361663042E-05 -4.937015504838297E-05 -4.30369682665553E-05 -3.684805782233211E-05 -2.9201411929293658E-05 -5.962243455792023E-05 -5.937992655842282E-05 -5.6788819762446055E-05 -4.885491607518525E-05 -4.252276275497521E-05 -3.633486222907902E-05 -2.8689464130445878E-05 -5.8152250961054904E-05 -5.7909843806068635E-05 -5.531981449577777E-05 -4.738921004252372E-05 -4.105968988454924E-05 -3.487436253481575E-05 -2.7232143698043664E-05 -5.5912799492071554E-05 -5.567050701942911E-05 -5.30817030468634E-05 -4.51548505468329E-05 -3.882832487228025E-05 -3.264592378863725E-05 -2.5007320470426034E-05 -5.379296364539396E-05 -5.355075007540979E-05 -5.096278914808166E-05 -4.3038518031315364E-05 -3.6714052592839624E-05 -3.053366481103236E-05 -2.289754900760303E-05 -5.2652296917344955E-05 -5.2410114212763814E-05 -4.982248307066212E-05 -4.189922174794527E-05 -3.55755622394373E-05 -2.9395962027706E-05 -2.17608192985425E-05 -5.229442424974386E-05 -5.2052251549695715E-05 -4.946472730226782E-05 -4.154179328834732E-05 -3.521839500931265E-05 -2.9039050075985633E-05 -2.1404222753480423E-05 -5.193655167881936E-05 -5.1694389209390516E-05 -4.9106974272283245E-05 -4.1184374963808745E-05 -3.486124381761118E-05 -2.86821599315677E-05 -2.1047655143401365E-05 -5.158844769378932E-05 -5.134629520637424E-05 -4.875898692333077E-05 -4.0836714186910925E-05 -3.451384368218337E-05 -2.8335014499936183E-05 -2.070082440847705E-05 -5.083309968606892E-05 -5.0590986814241116E-05 -4.844049570584766E-05 -4.1887470141645464E-05 -3.6497191253632404E-05 -3.127756303579675E-05 -2.4976574273565936E-05 -4.909235360401434E-05 -4.885031422327093E-05 -4.7573143853385164E-05 -4.375763402558013E-05 -4.0231849955986006E-05 -3.692992326984894E-05 -3.3294386197795826E-05 -4.615550972157079E-05 -4.591355243513366E-05 -4.5073061134684385E-05 -4.2626332570376174E-05 -4.003298561381352E-05 -3.769004399256607E-05 -3.538724063792304E-05 -4.221527199050868E-05 -4.197341126668627E-05 -4.113325539749767E-05 -3.8687503296891614E-05 -3.609519131789338E-05 -3.375318474006791E-05 -3.1451300410085745E-05 -3.8104710908666394E-05 -3.7862945071641304E-05 -3.702311881239694E-05 -3.457832622923645E-05 -3.1987031266054135E-05 -2.964594350423152E-05 -2.7344962249492236E-05 -3.393031007523915E-05 -3.368863284710281E-05 -3.284911439012067E-05 -3.0405217840728472E-05 -2.781487260547261E-05 -2.5474642868868E-05 -2.3174504940028285E-05 -2.978759481251013E-05 -2.954600304217015E-05 -2.870678144144501E-05 -2.626374906123942E-05 -2.367431977986694E-05 -2.1334917555551452E-05 -1.9035592962416788E-05 -2.5765639206690347E-05 -2.552413355960539E-05 -2.4685211126752692E-05 -2.224304964500693E-05 -1.9654543450037747E-05 -1.731597518183784E-05 -1.5017470257841828E-05 -1.5435848592429948E-05 -1.531506720189745E-05 -1.4895506751813184E-05 -1.3674137134868368E-05 -1.2379577850627748E-05 -1.1210017094191264E-05 -1.0060492748831438E-05 4.0629171464791686E-05 2.3592748963238885E-05 6.556326461686075E-06 -1.0481454273067427E-05 4.174217787084575E-05 2.4152022237780717E-05 6.561866604715688E-06 -1.1028283494646209E-05 4.2882065557398256E-05 2.4781961168369568E-05 6.681856779340882E-06 -1.141824580576444E-05 3.449665830224442E-05 1.9081650135509656E-05 3.666641968774887E-06 -1.1748366332354137E-05 3.368321969426505E-05 1.860248001855498E-05 3.5217403428449223E-06 -1.1558999358584105E-05 3.28142790545651E-05 1.80836568123949E-05 3.353034570224705E-06 -1.1377587765898225E-05</DataArray>